                         Program Version 4.0.0 -  RELEASE  -
|  1> ! HF aug-cc-pVDZ PrintBasis
|  2> %scf print[p_mos] 1 end
|  3>
|  4> *xyzfile 0 1 water_libint.xyz
|  5>
|  6>                          ****END OF INPUT****

CARTESIAN COORDINATES (ANGSTROEM)
---------------------------------
  O      0.000000   -0.075790    0.000000
  H      0.866810    0.601440    0.000000
  H     -0.866810    0.601440    0.000000

 Total Charge           Charge          ....    0
 Multiplicity           Mult            ....    1
 Number of Electrons    NEL             ....   10
 Basis Dimension        Dim             ....   41

ORBITAL ENERGIES
----------------

  NO   OCC          E(Eh)            E(eV)
   0   2.0000     -20.599194      -560.5326
   1   2.0000      -1.295387       -35.2493
   2   2.0000      -0.647596       -17.6220
   3   2.0000      -0.559039       -15.2122
   4   2.0000      -0.500201       -13.6112
   5   0.0000       0.032080         0.8729
   6   0.0000       0.056893         1.5481
   7   0.0000       0.174742         4.7550
   8   0.0000       0.203107         5.5268
   9   0.0000       0.207633         5.6500

------------------
MOLECULAR ORBITALS
------------------
                      0         1         2         3         4         5
                 -20.59919  -1.29539  -0.64760  -0.55904  -0.50020   0.03208
                   2.00000   2.00000   2.00000   2.00000   2.00000   0.00000
                  --------  --------  --------  --------  --------  --------
  0O   1s        -1.001330 -0.004624 -0.000000  0.002921  0.000000  0.000062
  0O   2s        -0.001713  0.459190 -0.000000  0.140814  0.000000 -0.066429
  0O   3s         0.007453  0.471038  0.000000  0.253184  0.000000 -0.175249
  0O   4s         0.004314  0.077742  0.000000  0.062657 -0.000000 -1.328198
  0O   1pz        0.000000 -0.000000  0.000000  0.000000 -0.633266 -0.000000
  0O   1px       -0.000000  0.000000 -0.484423 -0.000000 -0.000000 -0.000000
  0O   1py       -0.001435  0.052708  0.000000 -0.534647 -0.000000 -0.093768
  0O   2pz        0.000000  0.000000  0.000000  0.000000 -0.454130 -0.000000
  0O   2px        0.000000 -0.000000 -0.260501 -0.000000 -0.000000 -0.000000
  0O   2py        0.002097  0.012163  0.000000 -0.345353 -0.000000 -0.157432
  0O   3pz        0.000000 -0.000000  0.000000  0.000000 -0.070822 -0.000000
  0O   3px        0.000000 -0.000000 -0.030319 -0.000000 -0.000000 -0.000000
  0O   3py        0.000801  0.014148  0.000000 -0.043088 -0.000000 -0.230749
  0O   1dz2      -0.000077 -0.005326 -0.000000  0.010304  0.000000 -0.000508
  0O   1dxz       0.000000 -0.000000  0.000000 -0.000000 -0.000000  0.000000
  0O   1dyz       0.000000 -0.000000 -0.000000  0.000000 -0.011263 -0.000000
  0O   1dx2y2     0.000016  0.001153  0.000000  0.007423  0.000000  0.002987
  0O   1dxy      -0.000000 -0.000000 -0.023876 -0.000000 -0.000000  0.000000
  0O   2dz2      -0.000419  0.008808 -0.000000  0.003060  0.000000  0.011464
  0O   2dxz      -0.000000  0.000000  0.000000 -0.000000  0.000000 -0.000000
  0O   2dyz       0.000000 -0.000000 -0.000000  0.000000 -0.019896 -0.000000
  0O   2dx2y2     0.000155 -0.002973  0.000000  0.020566  0.000000 -0.004446
  0O   2dxy       0.000000 -0.000000  0.012458 -0.000000 -0.000000 -0.000000
  1H   1s        -0.000746  0.145522 -0.305644 -0.207501 -0.000000  0.038287
  1H   2s        -0.003484 -0.031620 -0.073433 -0.077058  0.000000  0.400807
  1H   3s        -0.000279 -0.003578  0.008310 -0.002771  0.000000  0.790403
  1H   1pz       -0.000000  0.000000  0.000000  0.000000 -0.019982 -0.000000
  1H   1px        0.000051 -0.026016  0.024734  0.026667  0.000000  0.007470
  1H   1py       -0.000032 -0.017279  0.030714  0.004368  0.000000  0.003514
  1H   2pz       -0.000000 -0.000000 -0.000000  0.000000 -0.016828  0.000000
  1H   2px        0.001228  0.009354 -0.009087  0.001231 -0.000000 -0.068115
  1H   2py        0.001011  0.009041 -0.004771 -0.013753 -0.000000 -0.062410
  2H   1s        -0.000746  0.145522  0.305644 -0.207501 -0.000000  0.038287
  2H   2s        -0.003484 -0.031620  0.073433 -0.077058 -0.000000  0.400807
  2H   3s        -0.000279 -0.003578 -0.008310 -0.002771 -0.000000  0.790403
  2H   1pz        0.000000 -0.000000  0.000000  0.000000 -0.019982  0.000000
  2H   1px       -0.000051  0.026016  0.024734 -0.026667 -0.000000 -0.007470
  2H   1py       -0.000032 -0.017279 -0.030714  0.004368  0.000000  0.003514
  2H   2pz       -0.000000  0.000000  0.000000  0.000000 -0.016828  0.000000
  2H   2px       -0.001228 -0.009354 -0.009087 -0.001231 -0.000000  0.068115
  2H   2py        0.001011  0.009041  0.004771 -0.013753 -0.000000 -0.062410
                      6         7         8         9        10        11
                   0.05689   0.17474   0.20311   0.20763   0.23335   0.25112
                   0.00000   0.00000   0.00000   0.00000   0.00000   0.00000
                  --------  --------  --------  --------  --------  --------
  0O   1s        -0.000000  0.027737  0.000000 -0.000395  0.000000 -0.000000
  0O   2s        -0.000000  0.109483  0.000000 -0.138863  0.000000 -0.000000
  0O   3s         0.000000 -0.204520  0.000000 -0.310587 -0.000000  0.000000
  0O   4s         0.000000 -3.885343 -0.000000  0.717277 -0.000000  0.000000
  0O   1pz        0.000000 -0.000000 -0.180294 -0.000000  0.000000 -0.000000
  0O   1px        0.087812  0.000000  0.000000 -0.000000  0.276632  0.166471
  0O   1py       -0.000000  0.232770  0.000000 -0.063363 -0.000000  0.000000
  0O   2pz        0.000000 -0.000000 -0.307879 -0.000000  0.000000 -0.000000
  0O   2px        0.139218 -0.000000 -0.000000  0.000000 -0.048154  0.308707
  0O   2py        0.000000  0.047929 -0.000000  0.076166 -0.000000  0.000000
  0O   3pz       -0.000000  0.000000  1.370308  0.000000 -0.000000  0.000000
  0O   3px        0.742445 -0.000000 -0.000000  0.000000 -2.382128  1.880233
  0O   3py        0.000000 -1.703628  0.000000 -1.057354  0.000000  0.000000
  0O   1dz2       0.000000 -0.009206  0.000000 -0.007958 -0.000000  0.000000
  0O   1dxz      -0.000000  0.000000  0.000000 -0.000000 -0.000000  0.000000
  0O   1dyz      -0.000000  0.000000 -0.013340 -0.000000  0.000000 -0.000000
  0O   1dx2y2     0.000000 -0.005963  0.000000 -0.001734  0.000000 -0.000000
  0O   1dxy      -0.001269  0.000000  0.000000  0.000000  0.007623 -0.020842
  0O   2dz2      -0.000000  0.068535 -0.000000  0.007743  0.000000 -0.000000
  0O   2dxz      -0.000000  0.000000 -0.000000  0.000000 -0.000000 -0.000000
  0O   2dyz       0.000000 -0.000000  0.046110  0.000000 -0.000000  0.000000
  0O   2dx2y2     0.000000 -0.008670 -0.000000  0.037020 -0.000000  0.000000
  0O   2dxy       0.023465 -0.000000 -0.000000  0.000000 -0.099144  0.089332
  1H   1s        -0.007645 -0.052020 -0.000000  0.102653 -0.022495 -0.165517
  1H   2s        -0.388189  1.468880 -0.000000  0.594543  1.526733 -1.700402
  1H   3s        -2.537587  0.710616  0.000000 -0.466896  2.234552 -0.462151
  1H   1pz       -0.000000  0.000000  0.011540  0.000000  0.000000  0.000000
  1H   1px       -0.002223 -0.027018 -0.000000  0.006730 -0.035459  0.024677
  1H   1py       -0.005736 -0.021461  0.000000 -0.001683 -0.022303  0.004564
  1H   2pz        0.000000  0.000000 -0.215035 -0.000000  0.000000 -0.000000
  1H   2px        0.080978 -0.447393 -0.000000  0.260636 -0.599861 -0.118335
  1H   2py        0.103765 -0.274671 -0.000000  0.281496 -0.590376 -0.127369
  2H   1s         0.007645 -0.052020 -0.000000  0.102653  0.022495  0.165517
  2H   2s         0.388189  1.468880 -0.000000  0.594543 -1.526733  1.700402
  2H   3s         2.537587  0.710616  0.000000 -0.466896 -2.234552  0.462151
  2H   1pz       -0.000000  0.000000  0.011540  0.000000 -0.000000  0.000000
  2H   1px       -0.002223  0.027018  0.000000 -0.006730 -0.035459  0.024677
  2H   1py        0.005736 -0.021461  0.000000 -0.001683  0.022303 -0.004564
  2H   2pz       -0.000000 -0.000000 -0.215035 -0.000000  0.000000 -0.000000
  2H   2px        0.080978  0.447393  0.000000 -0.260636 -0.599861 -0.118335
  2H   2py       -0.103765 -0.274671 -0.000000  0.281496  0.590376  0.127369
                     12        13        14        15        16        17
                   0.31773   0.37520   0.38336   0.41303   0.51818   0.60479
                   0.00000   0.00000   0.00000   0.00000   0.00000   0.00000
                  --------  --------  --------  --------  --------  --------
  0O   1s         0.011840 -0.000000  0.001011 -0.000000  0.000000  0.077256
  0O   2s         0.039986 -0.000000 -0.025288  0.000000 -0.000000 -0.055158
  0O   3s        -0.067556 -0.000000 -0.141379  0.000000 -0.000000 -2.130949
  0O   4s        -4.461448  0.000000  4.247580 -0.000000 -0.000000 -4.531461
  0O   1pz       -0.000000 -0.000000  0.000000  0.130917 -0.000000 -0.000000
  0O   1px       -0.000000  0.000000  0.000000 -0.000000  0.067659 -0.000000
  0O   1py       -0.077884  0.000000  0.169513 -0.000000 -0.000000 -0.233507
  0O   2pz       -0.000000 -0.000000  0.000000  0.493396  0.000000  0.000000
  0O   2px       -0.000000  0.000000  0.000000  0.000000  0.131987 -0.000000
  0O   2py       -0.308485  0.000000  0.656361 -0.000000 -0.000000 -0.662842
  0O   3pz       -0.000000 -0.000000  0.000000  1.119748  0.000000  0.000000
  0O   3px        0.000000  0.000000  0.000000 -0.000000  1.848256 -0.000000
  0O   3py       -0.584073  0.000000  1.801444 -0.000000  0.000000 -0.530379
  0O   1dz2      -0.011336  0.000000  0.007718 -0.000000  0.000000  0.000422
  0O   1dxz       0.000000  0.033916 -0.000000  0.000000  0.000000  0.000000
  0O   1dyz       0.000000  0.000000 -0.000000 -0.023623 -0.000000 -0.000000
  0O   1dx2y2     0.031696  0.000000  0.021028 -0.000000  0.000000  0.008668
  0O   1dxy      -0.000000  0.000000  0.000000 -0.000000  0.012998  0.000000
  0O   2dz2       0.056625 -0.000000 -0.041006  0.000000  0.000000 -0.057432
  0O   2dxz      -0.000000 -0.101027  0.000000 -0.000000 -0.000000  0.000000
  0O   2dyz      -0.000000 -0.000000  0.000000  0.064515 -0.000000  0.000000
  0O   2dx2y2    -0.109914 -0.000000 -0.075429  0.000000 -0.000000  0.021429
  0O   2dxy      -0.000000 -0.000000  0.000000  0.000000 -0.032254 -0.000000
  1H   1s         0.105410 -0.000000 -0.053058  0.000000  0.024696  0.240022
  1H   2s         2.195258 -0.000000 -2.206066  0.000000  0.274825  2.459569
  1H   3s         0.337349 -0.000000 -0.286652  0.000000 -0.541315  0.508870
  1H   1pz       -0.000000 -0.005784  0.000000  0.009442  0.000000 -0.000000
  1H   1px       -0.016640  0.000000  0.029723 -0.000000  0.022549  0.030176
  1H   1py       -0.023400  0.000000  0.009970  0.000000 -0.025779  0.014124
  1H   2pz        0.000000  1.023313 -0.000000 -1.130144 -0.000000 -0.000000
  1H   2px        0.157996  0.000000  0.455187 -0.000000 -1.669675 -1.263199
  1H   2py       -0.564558 -0.000000 -0.572184  0.000000  1.025477 -1.075567
  2H   1s         0.105410 -0.000000 -0.053058  0.000000 -0.024696  0.240022
  2H   2s         2.195258 -0.000000 -2.206066  0.000000 -0.274825  2.459569
  2H   3s         0.337349 -0.000000 -0.286652  0.000000  0.541315  0.508870
  2H   1pz       -0.000000  0.005784 -0.000000  0.009442 -0.000000  0.000000
  2H   1px        0.016640 -0.000000 -0.029723  0.000000  0.022549 -0.030176
  2H   1py       -0.023400  0.000000  0.009970 -0.000000  0.025779  0.014124
  2H   2pz        0.000000 -1.023313  0.000000 -1.130144 -0.000000 -0.000000
  2H   2px       -0.157996 -0.000000 -0.455187  0.000000 -1.669675  1.263199
  2H   2py       -0.564558 -0.000000 -0.572184  0.000000 -1.025477 -1.075567
                     18        19        20        21        22        23
                   0.62722   0.78251   0.90034   1.11317   1.12115   1.13610
                   0.00000   0.00000   0.00000   0.00000   0.00000   0.00000
                  --------  --------  --------  --------  --------  --------
  0O   1s        -0.000000 -0.000000 -0.117321 -0.000000 -0.005066  0.000000
  0O   2s         0.000000 -0.000000 -0.210875  0.000000  0.015103 -0.000000
  0O   3s         0.000000  0.000000  1.425825  0.000000  0.357666 -0.000000
  0O   4s         0.000000  0.000000  5.495280  0.000000  0.196372 -0.000000
  0O   1pz       -0.000000  0.000000  0.000000 -0.153485  0.000000  0.000000
  0O   1px       -0.340685 -0.131254 -0.000000 -0.000000 -0.000000 -0.000000
  0O   1py        0.000000 -0.000000 -0.072982 -0.000000 -0.111992  0.000000
  0O   2pz        0.000000 -0.000000 -0.000000 -0.011712  0.000000 -0.000000
  0O   2px       -1.441286  1.072535 -0.000000  0.000000 -0.000000  0.000000
  0O   2py        0.000000  0.000000  0.471012  0.000000  0.067153 -0.000000
  0O   3pz       -0.000000  0.000000  0.000000 -0.679617  0.000000  0.000000
  0O   3px       -1.519991  1.956717 -0.000000  0.000000 -0.000000 -0.000000
  0O   3py        0.000000  0.000000  1.440769 -0.000000 -0.581219  0.000000
  0O   1dz2       0.000000 -0.000000 -0.024516 -0.000000 -0.021615  0.000000
  0O   1dxz       0.000000  0.000000  0.000000  0.000000  0.000000  0.019873
  0O   1dyz       0.000000 -0.000000  0.000000  0.023016 -0.000000 -0.000000
  0O   1dx2y2    -0.000000  0.000000  0.012474 -0.000000 -0.008588  0.000000
  0O   1dxy       0.006402  0.036038 -0.000000 -0.000000 -0.000000  0.000000
  0O   2dz2       0.000000 -0.000000 -0.582812  0.000000  0.584287 -0.000000
  0O   2dxz       0.000000  0.000000  0.000000 -0.000000 -0.000000 -1.180165
  0O   2dyz       0.000000 -0.000000  0.000000 -1.127511  0.000000  0.000000
  0O   2dx2y2    -0.000000  0.000000  0.260325  0.000000  0.960843 -0.000000
  0O   2dxy       0.022040  0.724543 -0.000000  0.000000  0.000000  0.000000
  1H   1s         0.275513  0.454153  0.636713  0.000000  0.125884 -0.000000
  1H   2s         4.495909 -4.855556 -3.861952 -0.000000 -0.215242  0.000000
  1H   3s         1.078359 -0.541887 -0.231244 -0.000000 -0.013770  0.000000
  1H   1pz       -0.000000 -0.000000  0.000000 -0.030153  0.000000 -0.068046
  1H   1px        0.012414  0.134626  0.171528  0.000000  0.083515 -0.000000
  1H   1py        0.009061  0.159506  0.075379 -0.000000 -0.038714  0.000000
  1H   2pz       -0.000000  0.000000 -0.000000  0.560816 -0.000000  0.627097
  1H   2px       -2.224931  1.449736  0.532586 -0.000000 -0.108733  0.000000
  1H   2py       -1.398446  0.623779  0.577105  0.000000  0.578054 -0.000000
  2H   1s        -0.275513 -0.454153  0.636713  0.000000  0.125884 -0.000000
  2H   2s        -4.495909  4.855556 -3.861952 -0.000000 -0.215242  0.000000
  2H   3s        -1.078359  0.541887 -0.231244 -0.000000 -0.013770  0.000000
  2H   1pz       -0.000000  0.000000 -0.000000 -0.030153  0.000000  0.068046
  2H   1px        0.012414  0.134626 -0.171528 -0.000000 -0.083515  0.000000
  2H   1py       -0.009061 -0.159506  0.075379 -0.000000 -0.038714  0.000000
  2H   2pz       -0.000000  0.000000  0.000000  0.560816 -0.000000 -0.627097
  2H   2px       -2.224931  1.449736 -0.532586  0.000000  0.108733 -0.000000
  2H   2py        1.398446 -0.623779  0.577105  0.000000  0.578054 -0.000000
                     24        25        26        27        28        29
                   1.25193   1.42244   1.43919   1.55950   1.90544   1.93936
                   0.00000   0.00000   0.00000   0.00000   0.00000   0.00000
                  --------  --------  --------  --------  --------  --------
  0O   1s        -0.101940  0.000000 -0.000000 -0.184402 -0.000000 -0.000000
  0O   2s        -0.208314  0.000000 -0.000000 -0.520591 -0.000000 -0.000000
  0O   3s         1.036633 -0.000000  0.000000  0.184080  0.000000 -0.000000
  0O   4s         2.050491 -0.000000  0.000000 -2.398925 -0.000000 -0.000000
  0O   1pz        0.000000  0.000000 -0.972462  0.000000  0.000000 -0.000000
  0O   1px       -0.000000 -0.598531 -0.000000 -0.000000 -0.212538  0.000000
  0O   1py       -0.432958 -0.000000 -0.000000  0.791736  0.000000  0.000000
  0O   2pz       -0.000000 -0.000000  1.431390 -0.000000 -0.000000  0.000000
  0O   2px        0.000000  1.540168  0.000000  0.000000  0.607217 -0.000000
  0O   2py        0.738197  0.000000  0.000000 -1.683664 -0.000000 -0.000000
  0O   3pz       -0.000000  0.000000 -0.017560  0.000000  0.000000 -0.000000
  0O   3px       -0.000000  0.621554  0.000000  0.000000  0.910622 -0.000000
  0O   3py        0.531505 -0.000000  0.000000 -0.312482 -0.000000 -0.000000
  0O   1dz2      -0.056184  0.000000 -0.000000 -0.017302  0.000000  0.000000
  0O   1dxz      -0.000000 -0.000000 -0.000000  0.000000  0.000000  0.076939
  0O   1dyz      -0.000000 -0.000000  0.002892  0.000000 -0.000000 -0.000000
  0O   1dx2y2     0.027758 -0.000000  0.000000  0.017612 -0.000000  0.000000
  0O   1dxy       0.000000  0.068458  0.000000  0.000000 -0.042876  0.000000
  0O   2dz2       0.673262 -0.000000  0.000000  0.597538 -0.000000  0.000000
  0O   2dxz       0.000000  0.000000 -0.000000  0.000000 -0.000000 -0.708644
  0O   2dyz      -0.000000 -0.000000  0.261252  0.000000 -0.000000  0.000000
  0O   2dx2y2    -0.648677  0.000000 -0.000000 -0.228561  0.000000 -0.000000
  0O   2dxy      -0.000000 -0.798644 -0.000000 -0.000000  0.534781 -0.000000
  1H   1s         0.654926  0.547379  0.000000  0.627613 -0.330752  0.000000
  1H   2s        -1.746678 -2.875633 -0.000000  0.983148 -0.666098  0.000000
  1H   3s        -0.056042 -0.036914 -0.000000  0.213554 -0.343341  0.000000
  1H   1pz       -0.000000 -0.000000  0.078175 -0.000000  0.000000  0.887076
  1H   1px        0.159591  0.215218  0.000000 -0.007691  0.528634 -0.000000
  1H   1py        0.146821  0.187451  0.000000 -0.144181 -0.612321  0.000000
  1H   2pz        0.000000  0.000000 -0.435544 -0.000000 -0.000000 -0.178937
  1H   2px        0.568365  0.878167  0.000000 -0.214667 -0.320811  0.000000
  1H   2py        0.093049  0.795387  0.000000  0.046874  0.629260 -0.000000
  2H   1s         0.654926 -0.547379  0.000000  0.627613  0.330752 -0.000000
  2H   2s        -1.746678  2.875633 -0.000000  0.983148  0.666098  0.000000
  2H   3s        -0.056042  0.036914 -0.000000  0.213554  0.343341  0.000000
  2H   1pz       -0.000000  0.000000  0.078175  0.000000  0.000000 -0.887076
  2H   1px       -0.159591  0.215218 -0.000000  0.007691  0.528634 -0.000000
  2H   1py        0.146821 -0.187451  0.000000 -0.144181  0.612321 -0.000000
  2H   2pz        0.000000  0.000000 -0.435544 -0.000000  0.000000  0.178937
  2H   2px       -0.568365  0.878167 -0.000000  0.214667 -0.320811  0.000000
  2H   2py        0.093049 -0.795387  0.000000  0.046874 -0.629260 -0.000000
                     30        31        32        33        34        35
                   2.02912   2.20742   2.27462   2.32663   2.67819   2.94887
                   0.00000   0.00000   0.00000   0.00000   0.00000   0.00000
                  --------  --------  --------  --------  --------  --------
  0O   1s         0.000000 -0.000000 -0.212704  0.466423  0.000000  0.955657
  0O   2s         0.000000 -0.000000 -0.449130  1.149682  0.000000  1.852430
  0O   3s        -0.000000  0.000000  1.055915 -1.284645 -0.000000 -5.245552
  0O   4s         0.000000 -0.000000  0.659863 -0.791844 -0.000000 -3.869899
  0O   1pz       -0.128089 -0.000000 -0.000000  0.000000  0.000000  0.000000
  0O   1px        0.000000 -0.870736  0.000000 -0.000000  0.281730 -0.000000
  0O   1py        0.000000  0.000000  0.133872  0.495040 -0.000000  0.045483
  0O   2pz        0.623188  0.000000  0.000000 -0.000000 -0.000000 -0.000000
  0O   2px       -0.000000  1.322018 -0.000000 -0.000000 -3.970486  0.000000
  0O   2py        0.000000 -0.000000 -0.423401 -0.150361 -0.000000 -2.282294
  0O   3pz       -0.243336 -0.000000 -0.000000  0.000000 -0.000000  0.000000
  0O   3px        0.000000  0.234050 -0.000000 -0.000000 -1.092787  0.000000
  0O   3py        0.000000 -0.000000  0.180596 -0.003200 -0.000000 -0.780228
  0O   1dz2      -0.000000  0.000000  0.007437  0.051913 -0.000000 -0.278471
  0O   1dxz      -0.000000  0.000000 -0.000000  0.000000  0.000000  0.000000
  0O   1dyz      -0.063002 -0.000000 -0.000000  0.000000  0.000000 -0.000000
  0O   1dx2y2     0.000000 -0.000000 -0.076614 -0.043248  0.000000  0.097259
  0O   1dxy       0.000000  0.039972 -0.000000  0.000000  0.295859 -0.000000
  0O   2dz2      -0.000000 -0.000000 -0.007655 -0.183612  0.000000  0.961457
  0O   2dxz       0.000000  0.000000 -0.000000  0.000000  0.000000 -0.000000
  0O   2dyz       0.553617  0.000000  0.000000 -0.000000 -0.000000  0.000000
  0O   2dx2y2    -0.000000  0.000000  1.145172  0.076300  0.000000 -0.171447
  0O   2dxy      -0.000000  0.284782  0.000000 -0.000000 -2.139828  0.000000
  1H   1s         0.000000 -0.350347 -0.014989 -0.200028  2.049124  1.328943
  1H   2s        -0.000000 -1.357742 -0.593521  0.544428  3.625226  2.878062
  1H   3s        -0.000000 -0.285763 -0.033387  0.120942  0.357882  0.202433
  1H   1pz       -0.912074 -0.000000 -0.000000  0.000000 -0.000000  0.000000
  1H   1px        0.000000 -0.578994 -0.559174  0.573851 -0.567344 -0.856741
  1H   1py       -0.000000 -0.247303  0.867485  0.480887 -0.731321 -0.345840
  1H   2pz        0.184224  0.000000  0.000000 -0.000000  0.000000 -0.000000
  1H   2px       -0.000000  0.840582  0.200892 -0.484025 -1.223213 -0.703252
  1H   2py        0.000000  0.471658  0.164951 -0.425416 -0.688192 -0.597888
  2H   1s        -0.000000  0.350347 -0.014989 -0.200028 -2.049124  1.328943
  2H   2s         0.000000  1.357742 -0.593521  0.544428 -3.625226  2.878062
  2H   3s         0.000000  0.285763 -0.033387  0.120942 -0.357882  0.202433
  2H   1pz       -0.912074 -0.000000 -0.000000  0.000000  0.000000  0.000000
  2H   1px        0.000000 -0.578994  0.559174 -0.573851 -0.567344  0.856741
  2H   1py        0.000000  0.247303  0.867485  0.480887  0.731321 -0.345840
  2H   2pz        0.184224  0.000000  0.000000 -0.000000 -0.000000 -0.000000
  2H   2px        0.000000  0.840582 -0.200892  0.484025 -1.223213  0.703252
  2H   2py       -0.000000 -0.471658  0.164951 -0.425416  0.688192 -0.597888
                     36        37        38        39        40
                   3.66638   3.67864   3.67948   3.86451   4.03826
                   0.00000   0.00000   0.00000   0.00000   0.00000
                  --------  --------  --------  --------  --------
  0O   1s        -0.000000  0.000000 -0.063765  0.299196  0.000000
  0O   2s        -0.000000  0.000000 -0.122832  0.526775  0.000000
  0O   3s         0.000000 -0.000000  0.382672 -1.946084 -0.000000
  0O   4s        -0.000000  0.000000 -0.075418 -0.515132 -0.000000
  0O   1pz       -0.029791  0.000000  0.000000  0.000000 -0.000000
  0O   1px        0.000000 -0.000000  0.000000  0.000000  0.108263
  0O   1py        0.000000 -0.000000  0.028281 -0.100409  0.000000
  0O   2pz        0.147177 -0.000000 -0.000000 -0.000000  0.000000
  0O   2px       -0.000000  0.000000  0.000000  0.000000  1.412923
  0O   2py       -0.000000  0.000000 -0.035291 -0.891368 -0.000000
  0O   3pz        0.261092 -0.000000 -0.000000 -0.000000  0.000000
  0O   3px       -0.000000  0.000000  0.000000  0.000000  0.130412
  0O   3py       -0.000000  0.000000 -0.270699 -0.095358 -0.000000
  0O   1dz2      -0.000000  0.000000 -0.588525  1.028752 -0.000000
  0O   1dxz       0.000000  1.196532  0.000000 -0.000000  0.000000
  0O   1dyz      -1.189637  0.000000  0.000000  0.000000  0.000000
  0O   1dx2y2    -0.000000  0.000000 -1.045572 -0.612310  0.000000
  0O   1dxy       0.000000 -0.000000  0.000000  0.000000  1.258329
  0O   2dz2       0.000000 -0.000000  0.289406 -0.198651  0.000000
  0O   2dxz      -0.000000 -0.722269 -0.000000  0.000000  0.000000
  0O   2dyz       0.693396 -0.000000 -0.000000 -0.000000 -0.000000
  0O   2dx2y2     0.000000 -0.000000  0.707492  0.325807 -0.000000
  0O   2dxy      -0.000000  0.000000  0.000000  0.000000  0.011732
  1H   1s        -0.000000  0.000000 -0.066818  0.614525 -0.749439
  1H   2s         0.000000 -0.000000 -0.000021  0.556290 -0.958797
  1H   3s         0.000000 -0.000000  0.001613  0.004842  0.041689
  1H   1pz        0.044833 -0.050394 -0.000000 -0.000000  0.000000
  1H   1px        0.000000 -0.000000  0.045323 -0.521488  0.527630
  1H   1py        0.000000 -0.000000  0.026488 -0.312539  0.450194
  1H   2pz       -0.257314  0.257238  0.000000  0.000000  0.000000
  1H   2px       -0.000000  0.000000 -0.065336 -0.228368  0.277462
  1H   2py        0.000000 -0.000000  0.252318 -0.056643  0.268752
  2H   1s        -0.000000  0.000000 -0.066818  0.614525  0.749439
  2H   2s        -0.000000 -0.000000 -0.000021  0.556290  0.958797
  2H   3s        -0.000000 -0.000000  0.001613  0.004842 -0.041689
  2H   1pz        0.044833  0.050394  0.000000 -0.000000 -0.000000
  2H   1px       -0.000000  0.000000 -0.045323  0.521488  0.527630
  2H   1py        0.000000 -0.000000  0.026488 -0.312539 -0.450194
  2H   2pz       -0.257314 -0.257238 -0.000000  0.000000  0.000000
  2H   2px        0.000000 -0.000000  0.065336  0.228368  0.277462
  2H   2py        0.000000 -0.000000  0.252318 -0.056643 -0.268752

MULLIKEN ATOMIC CHARGES
-----------------------
   0 O :   -0.568953
   1 H :    0.284476
   2 H :    0.284476
Sum of atomic charges:   -0.0000000

LOEWDIN ATOMIC CHARGES
----------------------
   0 O :   -0.034423
   1 H :    0.017212
   2 H :    0.017212

  Mayer bond orders larger than 0.1
B(  0-O ,  1-H ) :   0.9155 B(  0-O ,  2-H ) :   0.9155

FINAL SINGLE POINT ENERGY       -76.003353796740

DIPOLE MOMENT
-------------
                                X             Y             Z
Electronic contribution:     -0.00000      -0.29799      -0.00000
Nuclear contribution   :      0.00000       1.12740       0.00000
                        -----------------------------------------
Total Dipole Moment    :     -0.00000       0.82941      -0.00000
                        -----------------------------------------
Magnitude (a.u.)       :      0.82941
Magnitude (Debye)      :      2.10820

                             ****ORCA TERMINATED NORMALLY****
TOTAL RUN TIME: 0 days 0 hours 0 minutes 1 seconds 462 msec
