                         Program Version 4.0.0 -  RELEASE  -
|  1> ! HF STO-3G Printbasis
|  2> %scf print[p_mos] 1 end
|  3>
|  4> *xyzfile 1 2 water_libint.xyz
|  5>
|  6>                          ****END OF INPUT****

CARTESIAN COORDINATES (ANGSTROEM)
---------------------------------
  O      0.000000   -0.075790    0.000000
  H      0.866810    0.601440    0.000000
  H     -0.866810    0.601440    0.000000

 Total Charge           Charge          ....    1
 Multiplicity           Mult            ....    2
 Number of Electrons    NEL             ....    9
 Basis Dimension        Dim             ....    7

ORBITAL ENERGIES
----------------
                 SPIN UP ORBITALS
  NO   OCC          E(Eh)            E(eV)
   0   1.0000     -20.985219      -571.0368
   1   1.0000      -1.838314       -50.0231
   2   1.0000      -1.098800       -29.8999
   3   1.0000      -1.068365       -29.0717
   4   1.0000      -1.012226       -27.5441
   5   0.0000      -0.014042        -0.3821
   6   0.0000       0.078752         2.1429

                 SPIN DOWN ORBITALS
  NO   OCC          E(Eh)            E(eV)
   0   1.0000     -20.953206      -570.1657
   1   1.0000      -1.656462       -45.0746
   2   1.0000      -1.051220       -28.6051
   3   1.0000      -0.950720       -25.8704
   4   0.0000      -0.178089        -4.8461
   5   0.0000       0.010066         0.2739
   6   0.0000       0.097391         2.6501
------------------
MOLECULAR ORBITALS
------------------
                      0         1         2         3         4         5
                 -20.98522  -1.83831  -1.09880  -1.06836  -1.01223  -0.01404
                   1.00000   1.00000   1.00000   1.00000   1.00000   0.00000
                  --------  --------  --------  --------  --------  --------
  0O   1s         0.994325 -0.249477  0.000000 -0.000000 -0.073145 -0.105195
  0O   2s         0.024543  0.945832  0.000000  0.000000  0.359209  0.662733
  0O   1pz        0.000000  0.000000 -0.000000  1.000000 -0.000000  0.000000
  0O   1px       -0.000000  0.000000  0.759801  0.000000 -0.000000 -0.000000
  0O   1py        0.003119  0.131921 -0.000000 -0.000000 -0.858697  0.597189
  1H   1s        -0.004649  0.079833  0.316802 -0.000000 -0.209435 -0.763510
  2H   1s        -0.004649  0.079833 -0.316802 -0.000000 -0.209435 -0.763510
                      6
                   0.07875
                   0.00000
                  --------
  0O   1s        -0.000000
  0O   2s         0.000000
  0O   1pz        0.000000
  0O   1px        0.797802
  0O   1py        0.000000
  1H   1s        -0.800839
  2H   1s         0.800839

                      0         1         2         3         4         5
                 -20.95321  -1.65646  -1.05122  -0.95072  -0.17809   0.01007
                   1.00000   1.00000   1.00000   1.00000   0.00000   0.00000
                  --------  --------  --------  --------  --------  --------
  0O   1s         0.994930  0.237380 -0.000000 -0.088330  0.000000  0.115327
  0O   2s         0.022022 -0.887764  0.000000  0.430972 -0.000000 -0.699357
  0O   1pz        0.000000  0.000000 -0.000000 -0.000000 -1.000000  0.000000
  0O   1px       -0.000000 -0.000000 -0.694753 -0.000000 -0.000000  0.000000
  0O   1py        0.002866 -0.130942  0.000000 -0.823766  0.000000 -0.644719
  1H   1s        -0.004188 -0.135024 -0.378759 -0.240339  0.000000  0.746454
  2H   1s        -0.004188 -0.135024  0.378759 -0.240339  0.000000  0.746454
                      6
                   0.09739
                   0.00000
                  --------
  0O   1s        -0.000000
  0O   2s         0.000000
  0O   1pz       -0.000000
  0O   1px        0.855046
  0O   1py        0.000000
  1H   1s        -0.773464
  2H   1s         0.773464

MULLIKEN ATOMIC CHARGES AND SPIN POPULATIONS
--------------------------------------------
   0 O :    0.149037    1.165990
   1 H :    0.425482   -0.082995
   2 H :    0.425482   -0.082995
Sum of atomic charges         :    1.0000000

LOEWDIN ATOMIC CHARGES AND SPIN POPULATIONS
-------------------------------------------
   0 O :    0.289740    1.144646
   1 H :    0.355130   -0.072323
   2 H :    0.355130   -0.072323

  Mayer bond orders larger than 0.1
B(  0-O ,  1-H ) :   0.8031 B(  0-O ,  2-H ) :   0.8031

FINAL SINGLE POINT ENERGY       -74.661758311421

DIPOLE MOMENT
-------------
                                X             Y             Z
Electronic contribution:      0.00000       0.02833       0.00000
Nuclear contribution   :      0.00000       1.12740       0.00000
                        -----------------------------------------
Total Dipole Moment    :      0.00000       1.15573       0.00000
                        -----------------------------------------
Magnitude (a.u.)       :      1.15573
Magnitude (Debye)      :      2.93764

                             ****ORCA TERMINATED NORMALLY****
TOTAL RUN TIME: 0 days 0 hours 0 minutes 1 seconds 183 msec
