                         Program Version 1.2.3 -  RELEASE  -
|  1> ! HF STO-3G
|  2> %scf print[p_mos] 1 end
|  3>
|  4> *xyzfile 0 1 water_libint.xyz
|  5>
|  6>                          ****END OF INPUT****

CARTESIAN COORDINATES (ANGSTROEM)
---------------------------------
  O      0.000000   -0.075790    0.000000
  H      0.866810    0.601440    0.000000
  H     -0.866810    0.601440    0.000000

 Total Charge           Charge          ....    0
 Multiplicity           Mult            ....    1
 Number of Electrons    NEL             ....   10
 Basis Dimension        Dim             ....    7

ORBITAL ENERGIES
----------------

  NO   OCC          E(Eh)            E(eV)
   0   2.0000     -20.262891      -551.3813
   1   2.0000      -1.209697       -32.9175
   2   2.0000      -0.547963       -14.9108
   3   2.0000      -0.436529       -11.8786
   4   2.0000      -0.387586       -10.5468
   5   0.0000       0.477618        12.9967
   6   0.0000       0.588140        16.0041
------------------
MOLECULAR ORBITALS
------------------
                      0         1         2         3         4         5
                 -20.26289  -1.20970  -0.54796  -0.43653  -0.38759   0.47762
                   2.00000   2.00000   2.00000   2.00000   2.00000   0.00000
                  --------  --------  --------  --------  --------  --------
  0O   1s         0.994435  0.239159  0.000000 -0.093683 -0.000000 -0.111640
  0O   2s         0.024097 -0.885735 -0.000000  0.479585  0.000000  0.669581
  0O   1pz        0.000000 -0.000000 -0.000000  0.000000 -1.000000  0.000000
  0O   1px        0.000000  0.000000  0.607283 -0.000000  0.000000 -0.000000
  0O   1py        0.003162 -0.085897 -0.000000 -0.747433 -0.000000  0.738487
  1H   1s        -0.004594 -0.144040  0.453000 -0.329468 -0.000000 -0.709850
  2H   1s        -0.004594 -0.144040 -0.453000 -0.329468 -0.000000 -0.709850
                      6
                   0.58814
                   0.00000
                  --------
  0O   1s        -0.000000
  0O   2s         0.000000
  0O   1pz        0.000000
  0O   1px        0.919235
  0O   1py        0.000000
  1H   1s        -0.732460
  2H   1s         0.732460

MULLIKEN ATOMIC CHARGES
-----------------------
   0 O :   -0.253146
   1 H :    0.126573
   2 H :    0.126573
Sum of atomic charges:   -0.0000000

LOEWDIN ATOMIC CHARGES
----------------------
   0 O :   -0.184234
   1 H :    0.092117
   2 H :    0.092117

  Mayer bond orders larger than 0.1
B(  0-O ,  1-H ) :   0.9752 B(  0-O ,  2-H ) :   0.9752

FINAL SINGLE POINT ENERGY       -74.942080055450

DIPOLE MOMENT
-------------
                                X             Y             Z
Electronic contribution:      0.00000      -0.52387      -0.00000
Nuclear contribution   :      0.00000       1.12740       0.00000
                        -----------------------------------------
Total Dipole Moment    :      0.00000       0.60352      -0.00000
                        -----------------------------------------
Magnitude (a.u.)       :      0.60352
Magnitude (Debye)      :      1.53404

                             ****ORCA TERMINATED NORMALLY****
TOTAL RUN TIME: 0 days 0 hours 0 minutes 0 seconds 391 msec
