                         Program Version 4.0.0 -  RELEASE  -
|  1> ! PM3 PrintBasis
|  2> %scf print[p_mos] 1 end
|  3> *xyzfile 0 1 water_libint.xyz
|  4>
|  5>                          ****END OF INPUT****

CARTESIAN COORDINATES (ANGSTROEM)
---------------------------------
  O      0.000000   -0.075790    0.000000
  H      0.866810    0.601440    0.000000
  H     -0.866810    0.601440    0.000000

 Total Charge           Charge          ....    0
 Multiplicity           Mult            ....    1
 Number of Electrons    NEL             ....    8
 Basis Dimension        Dim             ....    6

ORBITAL ENERGIES
----------------

  NO   OCC          E(Eh)            E(eV)
   0   2.0000      -1.262007       -34.3410
   1   2.0000      -0.602622       -16.3982
   2   2.0000      -0.532027       -14.4772
   3   2.0000      -0.448969       -12.2171
   4   0.0000       0.105597         2.8735
   5   0.0000       0.152131         4.1397
------------------
MOLECULAR ORBITALS
------------------
                      0         1         2         3         4         5
                  -1.26201  -0.60262  -0.53203  -0.44897   0.10560   0.15213
                   2.00000   2.00000   2.00000   2.00000   0.00000   0.00000
                  --------  --------  --------  --------  --------  --------
  0O 1-2s        -0.907011  0.000000  0.309765 -0.000000  0.285268 -0.000000
  0O 1-2pz        0.000000  0.000000  0.000000  1.000000 -0.000000  0.000000
  0O 1-2px        0.000000  0.773185 -0.000000 -0.000000 -0.000000 -0.634181
  0O 1-2py       -0.091434 -0.000000 -0.806127  0.000000  0.584637 -0.000000
  1H 1-1s        -0.290664  0.448434 -0.356515  0.000000 -0.537039  0.546724
  2H 1-1s        -0.290664 -0.448434 -0.356515  0.000000 -0.537039 -0.546724

MULLIKEN ATOMIC CHARGES
-----------------------
   0 O :   -0.366144
   1 H :    0.183072
   2 H :    0.183072
Sum of atomic charges:   -0.0000000

LOEWDIN ATOMIC CHARGES
----------------------
   0 O :   -0.349274
   1 H :    0.174637
   2 H :    0.174637

  Mayer bond orders larger than 0.1
B(  0-O ,  1-H ) :   0.9664 B(  0-O ,  2-H ) :   0.9664

FINAL SINGLE POINT ENERGY       -11.905677779672

DIPOLE MOMENT
-------------
                                X             Y             Z
Electronic contribution:     -0.00000      -1.76095       0.00000
Nuclear contribution   :      0.00000       1.41383       0.00000
                        -----------------------------------------
Total Dipole Moment    :     -0.00000      -0.34712       0.00000
                        -----------------------------------------
Magnitude (a.u.)       :      0.34712
Magnitude (Debye)      :      0.88230

                             ****ORCA TERMINATED NORMALLY****
TOTAL RUN TIME: 0 days 0 hours 0 minutes 1 seconds 68 msec
