                         Program Version 4.0.0 -  RELEASE  -
|  1> ! HF STO-3G Printbasis
|  2> %scf print[p_mos] 1 end
|  3>
|  4> *xyzfile 0 1 water_libint.xyz
|  5>
|  6>                          ****END OF INPUT****

CARTESIAN COORDINATES (ANGSTROEM)
---------------------------------
  O      0.000000   -0.075790    0.000000
  H      0.866810    0.601440    0.000000
  H     -0.866810    0.601440    0.000000

 Total Charge           Charge          ....    0
 Multiplicity           Mult            ....    1
 Number of Electrons    NEL             ....   10
 Basis Dimension        Dim             ....    7

ORBITAL ENERGIES
----------------

  NO   OCC          E(Eh)            E(eV)
   0   2.0000     -20.262746      -551.3773
   1   2.0000      -1.209627       -32.9156
   2   2.0000      -0.547937       -14.9101
   3   2.0000      -0.436495       -11.8776
   4   2.0000      -0.387501       -10.5444
   5   0.0000       0.477631        12.9970
   6   0.0000       0.588182        16.0053
------------------
MOLECULAR ORBITALS
------------------
                      0         1         2         3         4         5
                 -20.26275  -1.20963  -0.54794  -0.43649  -0.38750   0.47763
                   2.00000   2.00000   2.00000   2.00000   2.00000   0.00000
                  --------  --------  --------  --------  --------  --------
  0O   1s        -0.994434 -0.239154 -0.000000  0.093689  0.000000 -0.111647
  0O   2s        -0.024098  0.885707  0.000000 -0.479592 -0.000000  0.669612
  0O   1pz        0.000000 -0.000000  0.000000 -0.000000  1.000000  0.000000
  0O   1px        0.000000 -0.000000 -0.607268  0.000000 -0.000000  0.000000
  0O   1py       -0.003162  0.085930  0.000000  0.747470  0.000000  0.738446
  1H   1s         0.004594  0.144061 -0.453012  0.329422  0.000000 -0.709868
  2H   1s         0.004594  0.144061  0.453012  0.329422  0.000000 -0.709868
                      6
                   0.58818
                   0.00000
                  --------
  0O   1s        -0.000000
  0O   2s         0.000000
  0O   1pz       -0.000000
  0O   1px        0.919245
  0O   1py       -0.000000
  1H   1s        -0.732452
  2H   1s         0.732452

MULLIKEN ATOMIC CHARGES
-----------------------
   0 O :   -0.253188
   1 H :    0.126594
   2 H :    0.126594
Sum of atomic charges:   -0.0000000

LOEWDIN ATOMIC CHARGES
----------------------
   0 O :   -0.184270
   1 H :    0.092135
   2 H :    0.092135

  Mayer bond orders larger than 0.1
B(  0-O ,  1-H ) :   0.9752 B(  0-O ,  2-H ) :   0.9752

FINAL SINGLE POINT ENERGY       -74.942079999759

DIPOLE MOMENT
-------------
                                X             Y             Z
Electronic contribution:      0.00000      -0.52379       0.00000
Nuclear contribution   :      0.00000       1.12740       0.00000
                        -----------------------------------------
Total Dipole Moment    :      0.00000       0.60361       0.00000
                        -----------------------------------------
Magnitude (a.u.)       :      0.60361
Magnitude (Debye)      :      1.53425

                             ****ORCA TERMINATED NORMALLY****
TOTAL RUN TIME: 0 days 0 hours 0 minutes 0 seconds 946 msec
